27
Properties=species:S:1:pos:R:3:forces:R:3 charge=-1 spin=1 energy=-34109.65447662303 stress="-7.599939823150635 2.933396816253662 -4.329227924346924 2.933396816253662 7.397684574127197 -3.2321314811706543 -4.329227924346924 -3.2321314811706543 -0.3142410218715668" free_energy=-34109.65447662303 pbc="F F F"
O       -2.28285420      -1.07288440      -2.16915873      -0.00388078      -2.13560557      -0.74725485
P       -2.56425646       0.32645131      -2.47998867      -0.70315313       1.24926376       0.56046867
O       -2.44627801       0.97630960      -3.78997079      -0.20547353       0.02427080      -0.56051183
O       -3.35199111       1.00330278      -1.36689291       0.90160406       0.80411637      -0.12612535
O       -0.49332034       0.67141505      -1.88489825      -1.14093268       0.95925224       0.55032754
C       -0.65937513       0.05392207      -0.59161282      -0.95589864      -3.28462124      -0.53383744
O        1.64727009      -0.48773871      -0.92344268       0.84744853      -0.35660562       1.02716351
C        1.86269579      -0.51619286       0.28115313       1.99661553       0.50246763      -1.26935649
C        1.40668861      -2.75564709      -0.32877735      -1.43865812      -2.33227158      -0.56842601
O        0.22766183      -2.81437356      -0.00178783       1.35796797       0.04152537      -0.29983076
C        1.05130026      -0.45421058       1.48278719      -2.70519352       2.78977180      -1.04563844
O        1.64831531      -0.40526955       2.69960311       0.12999442       1.15406895       0.95910835
C        0.73280906       1.20853265       1.11648465      -0.89505684       0.96261328       3.56842041
O        0.29435968       1.75093837       2.56388272       0.25403044      -0.69283646      -2.27538109
C       -0.31192911       1.30616315       0.08756256       0.17090046      -1.21173120       0.43731850
O       -1.35219851       2.14689774       0.15723860      -0.92445904       0.69006109       1.46270180
H       -1.62480389      -0.37445970      -0.24265438      -0.44569156       1.72972548      -0.79576403
H        2.87860692      -0.34496548       0.58819867       1.30382502       0.06622870       0.39798927
H        1.71588459      -2.81573246      -1.39397280      -0.13321142       0.32514226       0.44535977
H        2.20598331      -2.92985141       0.41020168       0.10101768       0.43592343       0.14702418
H       -0.47750574      -1.35708630      -0.65339654       0.86094409       3.58020568       0.28095782
H        0.07796933      -0.95078416       1.51172441       0.14580488       0.07192967      -0.29762021
H        1.17512184       0.44230097       3.06553820       0.94802111      -1.58903408      -0.01611825
H        1.57730763       1.89039031       0.97636071       0.23243575      -0.78535491      -0.15610075
H       -0.67452890       1.81364484       2.53353986       0.22099634      -0.07206059      -0.06779690
H       -0.13051792       1.92407246      -1.26581682       0.24732478      -2.88749194      -1.01569033
H       -2.13241493       1.76485497      -0.38190492      -0.16732223      -0.03895286      -0.06138673
